Title: Dynamic Phasor Framework - Rim2025 RLC
Date: (framework output)
Plotname: Transient Analysis
Flags: real
No. Variables: 6
No. Points: 9230
Variables:
	0	time	time
	1	V(N001)	voltage
	2	V(N002)	voltage
	3	V(N003)	voltage
	4	I(V1)	current
	5	I(L1)	current
Values:
0	0.000000000000000e+00
	0.000000000000000e+00
	0.000000000000000e+00
	0.000000000000000e+00
	0.000000000000000e+00
	0.000000000000000e+00
1	5.417705060136526e-08
	-3.141416144273908e-02
	-3.138865653082096e-02
	-5.105679563832775e-06
	-8.501637306036546e-06
	-8.501637306036546e-06
2	1.083541012027305e-07
	-6.279731418261622e-02
	-6.269539981564083e-02
	-4.080753773395912e-05
	-3.397145565846395e-05
	-3.397145565846395e-05
3	1.625311518040958e-07
	-9.411848012524698e-02
	-9.388948428604332e-02
	-1.375710068743189e-04
	-7.633194640121812e-05
	-7.633194640121812e-05
4	2.167082024054610e-07
	-1.253467423629884e-01
	-1.249403247648219e-01
	-3.256646418675792e-04
	-1.354725327221722e-04
	-1.354725327221722e-04
5	2.708852530068263e-07
	-1.564512756928063e-01
	-1.558175262888617e-01
	-6.351010144741667e-04
	-2.112498013148787e-04
	-2.112498013148787e-04
6	3.250623036081916e-07
	-1.874013770436209e-01
	-1.864909137513515e-01
	-1.095578001342615e-03
	-3.034877640897980e-04
	-3.034877640897980e-04
7	3.792393542095568e-07
	-2.181664957830979e-01
	-2.169305612622683e-01
	-1.736420702534777e-03
	-4.119781736098677e-04
	-4.119781736098677e-04
8	4.334164048109221e-07
	-2.487162638739668e-01
	-2.471068212238103e-01
	-2.586524003113112e-03
	-5.364808833854820e-04
	-5.364808833854820e-04
9	4.875934554122873e-07
	-2.790205258501028e-01
	-2.769903530859127e-01
	-3.674295877208318e-03
	-6.767242547300277e-04
	-6.767242547300277e-04
10	5.417705060136526e-07
	-3.090493685827796e-01
	-3.065521517576926e-01
	-5.027601490381887e-03
	-8.324056083623591e-04
	-8.324056083623591e-04
11	5.959475566150178e-07
	-3.387731508077131e-01
	-3.357635756331868e-01
	-6.673708280854252e-03
	-1.003191724842116e-03
	-1.003191724842116e-03
12	6.501246072163832e-07
	-3.681625323837499e-01
	-3.645963742288806e-01
	-8.639231931524129e-03
	-1.188719384956411e-03
	-1.188719384956411e-03
13	7.043016578177484e-07
	-3.971885032543188e-01
	-3.930227153889178e-01
	-1.095008341345650e-02
	-1.388595955133685e-03
	-1.388595955133685e-03
14	7.584787084191137e-07
	-4.258224120830585e-01
	-4.210152120248195e-01
	-1.363141726815576e-02
	-1.602400019413016e-03
	-1.602400019413016e-03
15	8.126557590204789e-07
	-4.540359945353549e-01
	-4.485469483824838e-01
	-1.670758105690293e-02
	-1.829682050957041e-03
	-1.829682050957041e-03
16	8.668328096218442e-07
	-4.818014011778708e-01
	-4.755915058038436e-01
	-2.020206610190664e-02
	-2.069965124675720e-03
	-2.069965124675720e-03
17	9.210098602232094e-07
	-5.090912249685311e-01
	-5.021229879603775e-01
	-2.413745956783151e-02
	-2.322745669384536e-03
	-2.322745669384536e-03
18	9.751869108245747e-07
	-5.358785283098253e-01
	-5.281160455300510e-01
	-2.853539800728397e-02
	-2.587494259924759e-03
	-2.587494259924759e-03
19	1.029363961425940e-06
	-5.621368696387246e-01
	-5.535459002947420e-01
	-3.341652244620186e-02
	-2.863656447994181e-03
	-2.863656447994181e-03
20	1.083541012027305e-06
	-5.878403295269671e-01
	-5.783883686513768e-01
	-3.880043482606104e-02
	-3.150653625196785e-03
	-3.150653625196785e-03
21	1.137718062628670e-06
	-6.129635362659480e-01
	-6.026198844807703e-01
	-4.470565636416219e-02
	-3.447883928392570e-03
	-3.447883928392570e-03
22	1.191895113230036e-06
	-6.374816909109579e-01
	-6.262175213821070e-01
	-5.114958748892659e-02
	-3.754723176283632e-03
	-3.754723176283632e-03
23	1.246072163831401e-06
	-6.613705917600511e-01
	-6.491590142428076e-01
	-5.814846952767707e-02
	-4.070525839081141e-03
	-4.070525839081141e-03
24	1.300249214432766e-06
	-6.846066582433793e-01
	-6.714227801238045e-01
	-6.571734819906758e-02
	-4.394626039858264e-03
	-4.394626039858264e-03
25	1.354426265034132e-06
	-7.071669541994099e-01
	-6.929879384439327e-01
	-7.387003888195882e-02
	-4.726338585159059e-03
	-4.726338585159059e-03
26	1.408603315635497e-06
	-7.290292105150534e-01
	-7.138343304295313e-01
	-8.261909407696491e-02
	-5.064960028507387e-03
	-5.064960028507387e-03
27	1.462780366236862e-06
	-7.501718471073522e-01
	-7.339425378336385e-01
	-9.197577262155374e-02
	-5.409769757904552e-03
	-5.409769757904552e-03
28	1.516957416838227e-06
	-7.705739942250315e-01
	-7.532939009117858e-01
	-1.019500103871910e-01
	-5.760031104415202e-03
	-5.760031104415202e-03
29	1.571134467439593e-06
	-7.902155130488882e-01
	-7.718705355807393e-01
	-1.125503942588066e-01
	-6.114992489382970e-03
	-6.114992489382970e-03
30	1.625311518040958e-06
	-8.090770155706802e-01
	-7.896553498142953e-01
	-1.237841375459667e-01
	-6.473888585461633e-03
	-6.473888585461633e-03
31	1.679488568642323e-06
	-8.271398837308968e-01
	-8.066320592347902e-01
	-1.356570575115650e-01
	-6.835941498702184e-03
	-6.835941498702184e-03
32	1.733665619243688e-06
	-8.443862877965164e-01
	-8.227852019012021e-01
	-1.481735541071298e-01
	-7.200361965104771e-03
	-7.200361965104771e-03
33	1.787842669845054e-06
	-8.607992039606140e-01
	-8.381001522183577e-01
	-1.613365929635938e-01
	-7.566350580752136e-03
	-7.566350580752136e-03
34	1.842019720446419e-06
	-8.763624311464445e-01
	-8.525631340350073e-01
	-1.751476892446049e-01
	-7.933099037145747e-03
	-7.933099037145747e-03
35	1.896196771047784e-06
	-8.910606069994129e-01
	-8.661612328754283e-01
	-1.896068943734372e-01
	-8.299791374661507e-03
	-8.299791374661507e-03
36	1.950373821649149e-06
	-9.048792230511501e-01
	-8.788824073151930e-01
	-2.047127841032589e-01
	-8.665605245319057e-03
	-8.665605245319057e-03
37	2.004550872250515e-06
	-9.178046390407218e-01
	-8.907154994736212e-01
	-2.204624483023961e-01
	-9.029713189033556e-03
	-9.029713189033556e-03
38	2.058727922851880e-06
	-9.298240963788363e-01
	-9.016502445875919e-01
	-2.368514891319581e-01
	-9.391283930414825e-03
	-9.391283930414825e-03
39	2.112904973453245e-06
	-9.409257307417606e-01
	-9.116772797623323e-01
	-2.538740085906674e-01
	-9.749483659809438e-03
	-9.749483659809438e-03
40	2.167082024054610e-06
	-9.510985837825126e-01
	-9.207881517484313e-01
	-2.715226159356933e-01
	-1.010347734469376e-02
	-1.010347734469376e-02
41	2.221259074655976e-06
	-9.603326139477700e-01
	-9.289753238503304e-01
	-2.897884184564548e-01
	-1.045243003247987e-02
	-1.045243003247987e-02
42	2.275436125257341e-06
	-9.686187063898191e-01
	-9.362321819284226e-01
	-3.086610332476307e-01
	-1.079550815379882e-02
	-1.079550815379882e-02
43	2.329613175858706e-06
	-9.759486819637574e-01
	-9.425530394343529e-01
	-3.281285838882978e-01
	-1.113188084313486e-02
	-1.113188084313486e-02
44	2.383790226460071e-06
	-9.823153053010723e-01
	-9.479331416069625e-01
	-3.481777150583631e-01
	-1.146072123136989e-02
	-1.146072123136989e-02
45	2.437967277061437e-06
	-9.877122919516230e-01
	-9.523686686449976e-01
	-3.687935963982343e-01
	-1.178120776887515e-02
	-1.178120776887515e-02
46	2.492144327662802e-06
	-9.921343145869782e-01
	-9.558567380557300e-01
	-3.899599389551234e-01
	-1.209252551041607e-02
	-1.209252551041607e-02
47	2.546321378264167e-06
	-9.955770082589857e-01
	-9.583954059882412e-01
	-4.116590065899291e-01
	-1.239386742358148e-02
	-1.239386742358148e-02
48	2.600498428865533e-06
	-9.980369747083820e-01
	-9.599836676907593e-01
	-4.338716338230033e-01
	-1.268443567254093e-02
	-1.268443567254093e-02
49	2.654675479466898e-06
	-9.995117857191916e-01
	-9.606214571076223e-01
	-4.565772473378649e-01
	-1.296344287052313e-02
	-1.296344287052313e-02
50	2.708852530068263e-06
	-9.999999855156014e-01
	-9.603096453181300e-01
	-4.797538811852505e-01
	-1.323011339915715e-02
	-1.323011339915715e-02
51	2.763029580669628e-06
	-9.995010921989478e-01
	-9.590500383216521e-01
	-5.033782048304881e-01
	-1.348368462576522e-02
	-1.348368462576522e-02
52	2.817206631270994e-06
	-9.980155982233947e-01
	-9.568453738113543e-01
	-5.274255489108267e-01
	-1.372340813734679e-02
	-1.372340813734679e-02
53	2.871383681872359e-06
	-9.955449699098362e-01
	-9.536993170364958e-01
	-5.518699330111688e-01
	-1.394855095778013e-02
	-1.394855095778013e-02
54	2.925560732473724e-06
	-9.920916459985009e-01
	-9.496164556601222e-01
	-5.766840936522419e-01
	-1.415839677945956e-02
	-1.415839677945956e-02
55	2.979737783075089e-06
	-9.876590352416882e-01
	-9.446022937877617e-01
	-6.018395167160679e-01
	-1.435224715130881e-02
	-1.435224715130881e-02
56	3.033914833676455e-06
	-9.822515130390125e-01
	-9.386632452324893e-01
	-6.273064742337440e-01
	-1.452942260217439e-02
	-1.452942260217439e-02
57	3.088091884277820e-06
	-9.758744171184760e-01
	-9.318066257246419e-01
	-6.530540593873588e-01
	-1.468926379794469e-02
	-1.468926379794469e-02
58	3.142268934879185e-06
	-9.685340422676345e-01
	-9.240406443755474e-01
	-6.790502258412785e-01
	-1.483113263069568e-02
	-1.483113263069568e-02
59	3.196445985480550e-06
	-9.602376341200554e-01
	-9.153743939572079e-01
	-7.052618243674332e-01
	-1.495441338761584e-02
	-1.495441338761584e-02
60	3.250623036081916e-06
	-9.509933820032030e-01
	-9.058178407764820e-01
	-7.316546485354319e-01
	-1.505851374224036e-02
	-1.505851374224036e-02
61	3.304800086683281e-06
	-9.408104108548095e-01
	-8.953818134724194e-01
	-7.581934782283231e-01
	-1.514286579413004e-02
	-1.514286579413004e-02
62	3.358977137284646e-06
	-9.296987722157115e-01
	-8.840779911166964e-01
	-7.848421263870429e-01
	-1.520692703300505e-02
	-1.520692703300505e-02
63	3.413154187886011e-06
	-9.176694343080435e-01
	-8.719188900850949e-01
	-8.115634832003260e-01
	-1.525018140764952e-02
	-1.525018140764952e-02
64	3.467331238487377e-06
	-9.047342712085807e-01
	-8.589178506554946e-01
	-8.383195680811858e-01
	-1.527214018436202e-02
	-1.527214018436202e-02
65	3.521508289088742e-06
	-8.909060511279199e-01
	-8.450890225273819e-01
	-8.650715797857833e-01
	-1.527234286684597e-02
	-1.527234286684597e-02
66	3.575685339690107e-06
	-8.761984238070666e-01
	-8.304473496246957e-01
	-8.917799487888655e-01
	-1.525035806079030e-02
	-1.525035806079030e-02
67	3.629862390291472e-06
	-8.606259070438685e-01
	-8.150085541401282e-01
	-9.184043911357281e-01
	-1.520578430124679e-02
	-1.520578430124679e-02
68	3.684039440892838e-06
	-8.442038723625989e-01
	-7.987891198377477e-01
	-9.449039637013026e-01
	-1.513825084161706e-02
	-1.513825084161706e-02
69	3.738216491494203e-06
	-8.269485298408283e-01
	-7.818062746315002e-01
	-9.712371207849252e-01
	-1.504741840310938e-02
	-1.504741840310938e-02
70	3.792393542095568e-06
	-8.088769121085709e-01
	-7.640779724578473e-01
	-9.973617719674097e-01
	-1.493297988357458e-02
	-1.493297988357458e-02
71	3.846570592696933e-06
	-7.900068575354899e-01
	-7.456228744614484e-01
	-1.023235341155188e+00
	-1.479466102468052e-02
	-1.479466102468052e-02
72	3.900747643298299e-06
	-7.703569926227678e-01
	-7.264603295134588e-01
	-1.048814826734524e+00
	-1.463222103643632e-02
	-1.463222103643632e-02
73	3.954924693899664e-06
	-7.499467136170130e-01
	-7.066103540826217e-01
	-1.074056862757137e+00
	-1.444545317813042e-02
	-1.444545317813042e-02
74	4.009101744501029e-06
	-7.287961673643598e-01
	-6.860936114799580e-01
	-1.098917781077025e+00
	-1.423418529480063e-02
	-1.423418529480063e-02
75	4.063278795102394e-06
	-7.069262314236546e-01
	-6.649313904984256e-01
	-1.123353674356772e+00
	-1.399828030840967e-02
	-1.399828030840967e-02
76	4.117455845703760e-06
	-6.843584934583595e-01
	-6.431455834694914e-01
	-1.147320459860314e+00
	-1.373763666295606e-02
	-1.373763666295606e-02
77	4.171632896305125e-06
	-6.611152299275210e-01
	-6.207586637590988e-01
	-1.170773943947816e+00
	-1.345218872280740e-02
	-1.345218872280740e-02
78	4.225809946906490e-06
	-6.372193840968270e-01
	-5.977936627260221e-01
	-1.193669887187220e+00
	-1.314190712360164e-02
	-1.314190712360164e-02
79	4.279986997507855e-06
	-6.126945433914700e-01
	-5.742741461661074e-01
	-1.215964069995918e+00
	-1.280679907512089e-02
	-1.280679907512089e-02
80	4.334164048109221e-06
	-5.875649161131595e-01
	-5.502241902663525e-01
	-1.237612358725102e+00
	-1.244690861560233e-02
	-1.244690861560233e-02
81	4.388341098710586e-06
	-5.618553075442756e-01
	-5.256683570932407e-01
	-1.258570772098502e+00
	-1.206231681701165e-02
	-1.206231681701165e-02
82	4.442518149311951e-06
	-5.355910954627430e-01
	-5.006316696401466e-01
	-1.278795547916489e+00
	-1.165314194086546e-02
	-1.165314194086546e-02
83	4.496695199913316e-06
	-5.087982050918038e-01
	-4.751395864590499e-01
	-1.298243209935937e+00
	-1.121953954425134e-02
	-1.121953954425134e-02
84	4.550872250514682e-06
	-4.815030835094045e-01
	-4.492179759021348e-01
	-1.316870634835714e+00
	-1.076170253575657e-02
	-1.076170253575657e-02
85	4.605049301116047e-06
	-4.537326735424703e-01
	-4.228930899992325e-01
	-1.334635119177314e+00
	-1.027986118107926e-02
	-1.027986118107926e-02
86	4.659226351717412e-06
	-4.255143871718228e-01
	-3.961915379973455e-01
	-1.351494446269854e+00
	-9.774283058159096e-03
	-9.774283058159096e-03
87	4.713403402318777e-06
	-3.968760784740052e-01
	-3.691402595888207e-01
	-1.367406952848520e+00
	-9.245272961728182e-03
	-9.245272961728182e-03
88	4.767580452920143e-06
	-3.678460161267115e-01
	-3.417664978549724e-01
	-1.382331595475492e+00
	-8.693172757246384e-03
	-8.693172757246384e-03
89	4.821757503521508e-06
	-3.384528555049721e-01
	-3.140977719522245e-01
	-1.396228016572473e+00
	-8.118361184249192e-03
	-8.118361184249192e-03
90	4.875934554122873e-06
	-3.087256103956283e-01
	-2.861618495680277e-01
	-1.409056609994111e+00
	-7.521253609200187e-03
	-7.521253609200187e-03
91	4.930111604724238e-06
	-2.786936243580223e-01
	-2.579867191740104e-01
	-1.420778586051930e+00
	-6.902301728003958e-03
	-6.902301728003958e-03
92	4.984288655325604e-06
	-2.483865417591736e-01
	-2.296005621039764e-01
	-1.431356035898796e+00
	-6.261993218399083e-03
	-6.261993218399083e-03
93	5.038465705926969e-06
	-2.178342785120250e-01
	-2.010317244844818e-01
	-1.440751995184480e+00
	-5.600851342514392e-03
	-5.600851342514392e-03
94	5.092642756528334e-06
	-1.870669925456540e-01
	-1.723086890458489e-01
	-1.448930506893520e+00
	-4.919434499935031e-03
	-4.919434499935031e-03
95	5.146819807129699e-06
	-1.561150540365846e-01
	-1.434600468415212e-01
	-1.455856683277366e+00
	-4.218335731687803e-03
	-4.218335731687803e-03
96	5.200996857731065e-06
	-1.250090154305982e-01
	-1.145144689037445e-01
	-1.461496766793630e+00
	-3.498182175617896e-03
	-3.498182175617896e-03
97	5.255173908332431e-06
	-9.377958128462199e-02
	-8.550067786354841e-02
	-1.465818189966289e+00
	-2.759634473691195e-03
	-2.759634473691195e-03
98	5.309350958933796e-06
	-6.245757795847342e-02
	-5.644741956302016e-02
	-1.468789634081751e+00
	-2.003386131817754e-03
	-2.003386131817754e-03
99	5.363528009535161e-06
	-3.107392318636998e-02
	-2.738343468781035e-02
	-1.470381086636911e+00
	-1.230162832853210e-03
	-1.230162832853210e-03
100	5.417705060136526e-06
	3.404044417508661e-04
	1.662569552235295e-03
	-1.470563897456643e+00
	-4.407217034948099e-04
	-4.407217034948099e-04
101	5.471882110737892e-06
	3.175439605898629e-02
	3.066194766653113e-02
	-1.469310833399581e+00
	3.641494641517191e-04
	3.641494641517191e-04
102	5.526059161339257e-06
	6.313704313010884e-02
	5.958614402360980e-02
	-1.466596131572565e+00
	1.183633035499680e-03
	1.183633035499680e-03
103	5.580236211940622e-06
	9.445736805987533e-02
	8.840672085984258e-02
	-1.462395550975779e+00
	2.016882400010917e-03
	2.016882400010917e-03
104	5.634413262541987e-06
	1.256844547708017e-01
	1.170953861296669e-01
	-1.456686422502294e+00
	2.863022880378282e-03
	2.863022880378282e-03
105	5.688590313143353e-06
	1.567874792202073e-01
	1.456240211701380e-01
	-1.449447697217601e+00
	3.721152683356454e-03
	3.721152683356454e-03
106	5.742767363744718e-06
	1.877357398264188e-01
	1.739647081528727e-01
	-1.440659992846613e+00
	4.590343891182040e-03
	4.590343891182040e-03
107	5.796944414346083e-06
	2.184986877740872e-01
	2.020897572966753e-01
	-1.430305638397652e+00
	5.469643492470656e-03
	5.469643492470656e-03
108	5.851121464947448e-06
	2.490459571687169e-01
	2.299717338144368e-01
	-1.418368716855048e+00
	6.358074451426674e-03
	6.358074451426674e-03
109	5.905298515548814e-06
	2.793473950106278e-01
	2.575834845681757e-01
	-1.404835105874167e+00
	7.254636814150682e-03
	7.254636814150682e-03
110	5.959475566150179e-06
	3.093730909587779e-01
	2.848981644064367e-01
	-1.389692516415014e+00
	8.158308850780411e-03
	8.158308850780411e-03
111	6.013652616751544e-06
	3.390934068550518e-01
	3.118892621585926e-01
	-1.372930529252875e+00
	9.068048232153049e-03
	9.068048232153049e-03
112	6.067829667352909e-06
	3.684790059798861e-01
	3.385306262609944e-01
	-1.354540629306990e+00
	9.982793239630564e-03
	9.982793239630564e-03
113	6.122006717954275e-06
	3.975008820103404e-01
	3.647964899902857e-01
	-1.334516237730740e+00
	1.090146400668488e-02
	1.090146400668488e-02
114	6.176183768555640e-06
	4.261303876520428e-01
	3.906614962796530e-01
	-1.312852741709458e+00
	1.182296379079659e-02
	1.182296379079659e-02
115	6.230360819157005e-06
	4.543392629167341e-01
	4.161007220941956e-01
	-1.289547521914688e+00
	1.274618027417950e-02
	1.274618027417950e-02
116	6.284537869758370e-06
	4.820996630175097e-01
	4.410897023420992e-01
	-1.264599977566448e+00
	1.366998689180350e-02
	1.366998689180350e-02
117	6.338714920359736e-06
	5.093841858542181e-01
	4.656044532987676e-01
	-1.238011549057892e+00
	1.459324418515016e-02
	1.459324418515016e-02
118	6.392891970961101e-06
	5.361658990618829e-01
	4.896214955215838e-01
	-1.209785738099672e+00
	1.551480118009971e-02
	1.551480118009971e-02
119	6.447069021562466e-06
	5.624183665954589e-01
	5.131178762335191e-01
	-1.179928125344235e+00
	1.643349678731326e-02
	1.643349678731326e-02
120	6.501246072163831e-06
	5.881156748246664e-01
	5.360711911543401e-01
	-1.148446385453313e+00
	1.734816122344210e-02
	1.734816122344210e-02
121	6.555423122765197e-06
	6.132324581131617e-01
	5.584596057587655e-01
	-1.115350299574926e+00
	1.825761745146542e-02
	1.825761745146542e-02
122	6.609600173366562e-06
	6.377439238567785e-01
	5.802618759414906e-01
	-1.080651765199338e+00
	1.916068263842929e-02
	1.916068263842929e-02
123	6.663777223967927e-06
	6.616258769561403e-01
	6.014573680696399e-01
	-1.044364803366553e+00
	2.005616962883345e-02
	2.005616962883345e-02
124	6.717954274569292e-06
	6.848547436994741e-01
	6.220260784038099e-01
	-1.006505563201170e+00
	2.094288843188806e-02
	2.094288843188806e-02
125	6.772131325170658e-06
	7.074075950320620e-01
	6.419486518695414e-01
	-9.670923237536244e-01
	2.181964772084018e-02
	2.181964772084018e-02
126	6.826308375772023e-06
	7.292621691893504e-01
	6.612064001607376e-01
	-9.261454932978667e-01
	2.268525634287094e-02
	2.268525634287094e-02
127	6.880485426373388e-06
	7.503968936713880e-01
	6.797813191601109e-01
	-8.836876055114476e-01
	2.353852483709236e-02
	2.353852483709236e-02
128	6.934662476974753e-06
	7.707909065368892e-01
	6.976561056639226e-01
	-8.397433127705164e-01
	2.437826695765553e-02
	2.437826695765553e-02
129	6.988839527576119e-06
	7.904240769959158e-01
	7.148141733824211e-01
	-7.943393778254715e-01
	2.520330120449822e-02
	2.520330120449822e-02
130	7.043016578177484e-06
	8.092770252808390e-01
	7.312396682158364e-01
	-7.475046616525773e-01
	2.601245235500087e-02
	2.601245235500087e-02
131	7.097193628778849e-06
	8.273311417759763e-01
	7.469174827851104e-01
	-6.992701088790837e-01
	2.680455299695533e-02
	2.680455299695533e-02
132	7.151370679380214e-06
	8.445686053870144e-01
	7.618332702053311e-01
	-6.496687304613589e-01
	2.757844506056111e-02
	2.757844506056111e-02
133	7.205547729981580e-06
	8.609724011320906e-01
	7.759734570894421e-01
	-5.987355836219711e-01
	2.833298134754951e-02
	2.833298134754951e-02
134	7.259724780582945e-06
	8.765263369371619e-01
	7.893252557985104e-01
	-5.465077479377444e-01
	2.906702704621716e-02
	2.906702704621716e-02
135	7.313901831184310e-06
	8.912150596190914e-01
	8.018766757882676e-01
	-4.930243033574243e-01
	2.977946127694125e-02
	2.977946127694125e-02
136	7.368078881785675e-06
	9.050240700406700e-01
	8.136165343144317e-01
	-4.383262984443734e-01
	3.046917857541276e-02
	3.046917857541276e-02
137	7.422255932387041e-06
	9.179397374226156e-01
	8.245344662042545e-01
	-3.824567212534359e-01
	3.113509040612036e-02
	3.113509040612036e-02
138	7.476432982988406e-06
	9.299493127984197e-01
	8.346209329181797e-01
	-3.254604635454045e-01
	3.177612662674667e-02
	3.177612662674667e-02
139	7.530610033589771e-06
	9.410409415987664e-01
	8.438672307445521e-01
	-2.673842846830701e-01
	3.239123695140479e-02
	3.239123695140479e-02
140	7.584787084191136e-06
	9.512036753530954e-01
	8.522654978978624e-01
	-2.082767789200737e-01
	3.297939248507763e-02
	3.297939248507763e-02
141	7.638964134792502e-06
	9.604274824967634e-01
	8.598087212208689e-01
	-1.481883278501423e-01
	3.353958709196483e-02
	3.353958709196483e-02
142	7.693141185393867e-06
	9.687032582731296e-01
	8.664907419366712e-01
	-8.717105482576597e-02
	3.407083877881948e-02
	3.407083877881948e-02
143	7.747318235995233e-06
	9.760228337208025e-01
	8.723062601165557e-01
	-2.527878597942517e-02
	3.457219120141558e-02
	3.457219120141558e-02
144	7.801495286596597e-06
	9.823789837371620e-01
	8.772508389031083e-01
	3.743300492417444e-02
	3.504271494468459e-02
	3.504271494468459e-02
145	7.855672337197963e-06
	9.877654342102110e-01
	8.813209074809059e-01
	1.009072451373904e-01
	3.548150890976838e-02
	3.548150890976838e-02
146	7.909849387799328e-06
	9.921768682117060e-01
	8.845137633233320e-01
	1.650853169452547e-01
	3.588770162945801e-02
	3.588770162945801e-02
147	7.964026438400694e-06
	9.956089312454629e-01
	8.868275736243576e-01
	2.299071144187943e-01
	3.626045254036845e-02
	3.626045254036845e-02
148	8.018203489002058e-06
	9.980582355456481e-01
	8.882613755939210e-01
	2.953110985940856e-01
	3.659895331724235e-02
	3.659895331724235e-02
149	8.072380539603424e-06
	9.995223634208201e-01
	8.888150765437749e-01
	3.612343636106461e-01
	3.690242895901508e-02
	3.690242895901508e-02
150	8.126557590204789e-06
	9.999998696404159e-01
	8.884894520968858e-01
	4.276126916528256e-01
	3.717013918117669e-02
	3.717013918117669e-02
151	8.180734640806155e-06
	9.994902828613277e-01
	8.872861446431467e-01
	4.943806239983936e-01
	3.740137940606032e-02
	3.740137940606032e-02
152	8.234911691407519e-06
	9.979941060931629e-01
	8.852076603637902e-01
	5.614715259929202e-01
	3.759548190979089e-02
	3.759548190979089e-02
153	8.289088742008885e-06
	9.955128162017268e-01
	8.822573650898298e-01
	6.288176520546904e-01
	3.775181703729901e-02
	3.775181703729901e-02
154	8.343265792610250e-06
	9.920488624512183e-01
	8.784394800830230e-01
	6.963502197439633e-01
	3.786979412273176e-02
	3.786979412273176e-02
155	8.397442843211616e-06
	9.876056640865778e-01
	8.737590764546749e-01
	7.639994804592231e-01
	3.794886254396763e-02
	3.794886254396763e-02
156	8.451619893812980e-06
	9.821876069583747e-01
	8.682220690278787e-01
	8.316947941750453e-01
	3.798851264349867e-02
	3.798851264349867e-02
157	8.505796944414346e-06
	9.758000391935637e-01
	8.618352091289521e-01
	8.993647039194855e-01
	3.798827668820390e-02
	3.798827668820390e-02
158	8.559973995015711e-06
	9.684492659163865e-01
	8.546060767339916e-01
	9.669370131304387e-01
	3.794772972746496e-02
	3.794772972746496e-02
159	8.614151045617077e-06
	9.601425430246249e-01
	8.465430717677754e-01
	1.034338864118635e+00
	3.786649041894980e-02
	3.786649041894980e-02
160	8.668328096218441e-06
	9.508880700273572e-01
	8.376554046075544e-01
	1.101496817904225e+00
	3.774422180660095e-02
	3.774422180660095e-02
161	8.722505146819807e-06
	9.406949819512758e-01
	8.279530858022340e-01
	1.168336935338664e+00
	3.758063204968059e-02
	3.758063204968059e-02
162	8.776682197421172e-06
	9.295733403235675e-01
	8.174469150182311e-01
	1.234784859421546e+00
	3.737547510177881e-02
	3.737547510177881e-02
163	8.830859248022538e-06
	9.175341232402473e-01
	8.061484692240055e-01
	1.300765898720314e+00
	3.712855133874724e-02
	3.712855133874724e-02
164	8.885036298623902e-06
	9.045892145297580e-01
	7.940700901004520e-01
	1.366205111793604e+00
	3.683970814310200e-02
	3.683970814310200e-02
165	8.939213349225268e-06
	8.907513920225213e-01
	7.812248707929220e-01
	1.431027392587237e+00
	3.650884040986643e-02
	3.650884040986643e-02
166	8.993390399826633e-06
	8.760343149380322e-01
	7.676266418962489e-01
	1.495157556514745e+00
	3.613589101392777e-02
	3.613589101392777e-02
167	9.047567450427999e-06
	8.604525104019346e-01
	7.532899566648000e-01
	1.558520427343641e+00
	3.572085124571153e-02
	3.572085124571153e-02
168	9.101744501029363e-06
	8.440213591063995e-01
	7.382300756287288e-01
	1.621040924716362e+00
	3.526376115922359e-02
	3.526376115922359e-02
169	9.155921551630729e-06
	8.267570801279442e-01
	7.224629505028985e-01
	1.682644152162815e+00
	3.476470987501522e-02
	3.476470987501522e-02
170	9.210098602232094e-06
	8.086767149176981e-01
	7.060052074382736e-01
	1.743255485528291e+00
	3.422383582647485e-02
	3.422383582647485e-02
171	9.264275652833460e-06
	7.897981104798988e-01
	6.888741296332056e-01
	1.802800661713855e+00
	3.364132694889772e-02
	3.364132694889772e-02
172	9.318452703434824e-06
	7.701399017552432e-01
	6.710876393226908e-01
	1.861205867625392e+00
	3.301742081085077e-02
	3.301742081085077e-02
173	9.372629754036190e-06
	7.497214932264579e-01
	6.526642791642102e-01
	1.918397829226866e+00
	3.235240468741588e-02
	3.235240468741588e-02
174	9.426806804637555e-06
	7.285630397642746e-01
	6.336231930393877e-01
	1.974303900592650e+00
	3.164661557496230e-02
	3.164661557496230e-02
175	9.480983855238921e-06
	7.066854267326895e-01
	6.139841062911922e-01
	2.028852152853420e+00
	3.090044014716577e-02
	3.090044014716577e-02
176	9.535160905840285e-06
	6.841102493731717e-01
	5.937673054169884e-01
	2.081971462929642e+00
	3.011431465206109e-02
	3.011431465206109e-02
177	9.589337956441651e-06
	6.608597914881397e-01
	5.729936172381936e-01
	2.133591601946573e+00
	2.928872474998200e-02
	2.928872474998200e-02
178	9.643515007043016e-06
	6.369570034447806e-01
	5.516843875678420e-01
	2.183643323224468e+00
	2.842420529231286e-02
	2.842420529231286e-02
179	9.697692057644382e-06
	6.124254795208965e-01
	5.298614593977645e-01
	2.232058449737815e+00
	2.752134004104399e-02
	2.752134004104399e-02
180	9.751869108245746e-06
	5.872894346151575e-01
	5.075471506275764e-01
	2.278769960937487e+00
	2.658076132919368e-02
	2.658076132919368e-02
181	9.806046158847112e-06
	5.615736803447373e-01
	4.847642313580546e-01
	2.323712078830028e+00
	2.560314966222758e-02
	2.560314966222758e-02
182	9.860223209448477e-06
	5.353036005539421e-01
	4.615359007719093e-01
	2.366820353208620e+00
	2.458923326067759e-02
	2.458923326067759e-02
183	9.914400260049843e-06
	5.085051262579885e-01
	4.378857636252981e-01
	2.408031745930881e+00
	2.353978754423012e-02
	2.353978754423012e-02
184	9.968577310651207e-06
	4.812047100466785e-01
	4.138378063738050e-01
	2.447284714139199e+00
	2.245563455762450e-02
	2.245563455762450e-02
185	1.002275436125257e-05
	4.534292999732270e-01
	3.894163729569167e-01
	2.484519292320157e+00
	2.133764233877009e-02
	2.133764233877009e-02
186	1.007693141185394e-05
	4.252063129540277e-01
	3.646461402653446e-01
	2.519677173100419e+00
	2.018672422956103e-02
	2.018672422956103e-02
187	1.013110846245530e-05
	3.965636077056010e-01
	3.395520933157975e-01
	2.552701786677555e+00
	1.900383812993451e-02
	1.900383812993451e-02
188	1.018528551305667e-05
	3.675294572454474e-01
	3.141595001580827e-01
	2.583538378785301e+00
	1.778998569578824e-02
	1.778998569578824e-02
189	1.023946256365803e-05
	3.381325209839425e-01
	2.884938865396268e-01
	2.612134087094142e+00
	1.654621148143857e-02
	1.654621148143857e-02
190	1.029363961425940e-05
	3.084018164348388e-01
	2.625810103527297e-01
	2.638438015949363e+00
	1.527360202736971e-02
	1.527360202736971e-02
191	1.034781666486076e-05
	2.783666905722658e-01
	2.364468358900000e-01
	2.662401309350304e+00
	1.397328489408859e-02
	1.397328489408859e-02
192	1.040199371546213e-05
	2.480567908625426e-01
	2.101175079336390e-01
	2.683977222076101e+00
	1.264642764296787e-02
	1.264642764296787e-02
193	1.045617076606350e-05
	2.175020359993639e-01
	1.836193257042980e-01
	2.703121188864983e+00
	1.129423676502195e-02
	1.129423676502195e-02
194	1.051034781666486e-05
	1.867325863712631e-01
	1.569787166953840e-01
	2.719790891555988e+00
	9.917956558626363e-03
	9.917956558626363e-03
195	1.056452486726623e-05
	1.557788142905017e-01
	1.302222104187411e-01
	2.733946324103960e+00
	8.518867957253529e-03
	8.518867957253529e-03
196	1.061870191786759e-05
	1.246712740127649e-01
	1.033764120876900e-01
	2.745549855380732e+00
	7.098287308358295e-03
	7.098287308358295e-03
197	1.067287896846896e-05
	9.344067157727075e-02
	7.646797626344179e-02
	2.754566289677579e+00
	5.657565104609654e-03
	5.657565104609654e-03
198	1.072705601907032e-05
	6.211783449704667e-02
	4.952358049088120e-02
	2.760962924826333e+00
	4.198084668721824e-03
	4.198084668721824e-03
199	1.078123306967169e-05
	3.073368132930490e-02
	2.256989894970836e-02
	2.764709607858880e+00
	2.721260793198847e-03
	2.721260793198847e-03
200	1.083541012027305e-05
	-6.808088440573037e-04
	-4.366423853139774e-03
	2.765778788127334e+00
	1.228538336360823e-03
	1.228538336360823e-03
201	1.088958717087442e-05
	-3.209462699568671e-02
	-3.125879933251155e-02
	2.764145568130434e+00
	-2.786092210583893e-04
	-2.786092210583893e-04
202	1.094376422147578e-05
	-6.347676476158436e-02
	-5.808072096269157e-02
	2.759787751058600e+00
	-1.798681266297597e-03
	-1.798681266297597e-03
203	1.099794127207715e-05
	-9.479624504923785e-02
	-8.480579027868268e-02
	2.752685884656056e+00
	-3.330151590185055e-03
	-3.330151590185055e-03
204	1.105211832267851e-05
	-1.260221526149054e-01
	-1.114077428138451e-01
	2.742823305439586e+00
	-4.871469933686744e-03
	-4.871469933686744e-03
205	1.110629537327988e-05
	-1.571236645798297e-01
	-1.378604737919598e-01
	2.730186177224631e+00
	-6.421063595956632e-03
	-6.421063595956632e-03
206	1.116047242388124e-05
	-1.880700808553024e-01
	-1.641380636487119e-01
	2.714763527527428e+00
	-7.977339068863512e-03
	-7.977339068863512e-03
207	1.121464947448261e-05
	-2.188308544464998e-01
	-1.902148033339536e-01