Title: Rim2025 RLC Circuit - Phasor Domain (Dynamic Phasor Framework)
Date: (framework output)
Plotname: Transient Analysis
Flags: real
No. Variables: 6
No. Points: 2000
Variables:
	0	time	time
	1	V(N001)	voltage
	2	V(N002)	voltage
	3	V(N003)	voltage
	4	I(V1)	current
	5	I(L1)	current
Values:
0	0.000000000000000e+00
	-6.123233995736766e-17
	-6.123233995736766e-17
	0.000000000000000e+00
	0.000000000000000e+00
	0.000000000000000e+00
1	2.501250625312656e-07
	-1.445488604807238e-01
	-1.440080894918786e-01
	-5.002885060899856e-04
	-1.802569962817258e-04
	-1.802569962817258e-04
2	5.002501250625313e-07
	-2.860615195404166e-01
	-2.839263481385632e-01
	-3.965666369336773e-03
	-7.117238006177862e-04
	-7.117238006177862e-04
3	7.503751875937969e-07
	-4.215655501734141e-01
	-4.168568946541027e-01
	-1.320582965698823e-02
	-1.569551839770441e-03
	-1.569551839770441e-03
4	1.000500250125063e-06
	-5.482147346441003e-01
	-5.400693127989571e-01
	-3.075466671671268e-02
	-2.715140615047771e-03
	-2.715140615047771e-03
5	1.250625312656328e-06
	-6.633488483572519e-01
	-6.510564866274363e-01
	-5.876243401773422e-02
	-4.097453909938567e-03
	-4.097453909938567e-03
6	1.500750375187594e-06
	-7.645495370034513e-01
	-7.475853665848797e-01
	-9.890094619572969e-02
	-5.654723472857172e-03
	-5.654723472857172e-03
7	1.750875437718859e-06
	-8.496911132984468e-01
	-8.277416437816489e-01
	-1.522847385866511e-01
	-7.316489838932635e-03
	-7.316489838932635e-03
8	2.001000500250125e-06
	-9.169852063476083e-01
	-8.899674438904215e-01
	-2.194106967280192e-01
	-9.005920819062301e-03
	-9.005920819062301e-03
9	2.251125562781391e-06
	-9.650183257902140e-01
	-9.330913044192876e-01
	-3.001181022218171e-01
	-1.064234045697547e-02
	-1.064234045697547e-02
10	2.501250625312656e-06
	-9.927815517010343e-01
	-9.563498649372997e-01
	-3.935704643795793e-01
	-1.214389558791156e-02
	-1.214389558791156e-02
11	2.751375687843922e-06
	-9.996917266225669e-01
	-9.594008770833292e-01
	-4.982598592900210e-01
	-1.343028317974588e-02
	-1.343028317974588e-02
12	3.001500750375188e-06
	-9.856037045962303e-01
	-9.423273246890186e-01
	-6.120338880415683e-01
	-1.442545996907057e-02
	-1.442545996907057e-02
13	3.251625812906454e-06
	-9.508133999056348e-01
	-9.056326314929081e-01
	-7.321446454666121e-01
	-1.506025613757559e-02
	-1.506025613757559e-02
14	3.501750875437719e-06
	-8.960515714940779e-01
	-8.502271201154528e-01
	-8.553185487502984e-01
	-1.527481712620837e-02
	-1.527481712620837e-02
15	3.751875937968984e-06
	-8.224684736125335e-01
	-7.774060665652542e-01
	-9.778451527409202e-01
	-1.502080234909310e-02
	-1.502080234909310e-02
16	4.002001000500250e-06
	-7.316096951062460e-01
	-6.888198684601543e-01
	-1.095682629087375e+00
	-1.426327554869723e-02
	-1.426327554869723e-02
17	4.252126063031516e-06
	-6.253836948277893e-01
	-5.864370057537543e-01
	-1.204577018740006e+00
	-1.298222969134500e-02
	-1.298222969134500e-02
18	4.502251125562782e-06
	-5.060217150845975e-01
	-4.725006169690846e-01
	-1.300191947347437e+00
	-1.117369937183760e-02
	-1.117369937183760e-02
19	4.752376188094047e-06
	-3.760309151258547e-01
	-3.494796435688642e-01
	-1.378245202782689e+00
	-8.850423852330144e-03
	-8.850423852330144e-03
20	5.002501250625313e-06
	-2.381417090844919e-01
	-2.200156011093704e-01
	-1.434648296601592e+00
	-6.042035991707161e-03
	-6.042035991707161e-03
21	5.252626313156579e-06
	-9.525041452354858e-02
	-8.686611726111970e-02
	-1.465644990238628e+00
	-2.794765754142961e-03
	-2.794765754142961e-03
22	5.502751375687844e-06
	4.964158376462072e-02
	4.715355934817991e-02
	-1.467944774363312e+00
	8.293414721469347e-04
	8.293414721469347e-04
23	5.752876438219110e-06
	1.934908768618464e-01
	1.792298453107780e-01
	-1.438847332995892e+00
	4.753677183689477e-03
	4.753677183689477e-03
24	6.003001500750375e-06
	3.332759575306191e-01
	3.066096595716412e-01
	-1.376354229815666e+00
	8.888765986326000e-03
	8.888765986326000e-03
25	6.253126563281641e-06
	4.660606859829532e-01
	4.266575859256498e-01
	-1.279264338859958e+00
	1.313436668576777e-02
	1.313436668576777e-02
26	6.503251625812907e-06
	5.890559625339573e-01
	5.369101783862352e-01
	-1.147249924835563e+00
	1.738192804924071e-02
	1.738192804924071e-02
27	6.753376688344172e-06
	6.996783117262504e-01
	6.351262956597782e-01
	-9.809107620170233e-01
	2.151733868882409e-02
	2.151733868882409e-02
28	7.003501750875438e-06
	7.956041473849006e-01
	7.193324395255465e-01
	-7.818042051318399e-01
	2.542390261978474e-02
	2.542390261978474e-02
29	7.253626813406704e-06
	8.748185787831874e-01
	7.878621858395684e-01
	-5.524497681651982e-01
	2.898546431453966e-02
	2.898546431453966e-02
30	7.503751875937969e-06
	9.356577327616984e-01
	8.393889243392412e-01
	-2.963074047878635e-01
	3.208960280748577e-02
	3.208960280748577e-02
31	7.753876938469235e-06
	9.768437028385040e-01
	8.729512686258676e-01
	-1.772934272952578e-02
	3.463081140421211e-02
	3.463081140421211e-02
32	8.004002001000500e-06
	9.975113912158219e-01
	8.879706570207226e-01
	2.781138791254698e-01
	3.651357806503304e-02
	3.651357806503304e-02
33	8.254127063531765e-06
	9.972266798756207e-01
	8.842608281053254e-01
	5.853319973383044e-01
	3.765528392343184e-02
	3.765528392343184e-02
34	8.504252126063032e-06
	9.759955490862527e-01
	8.620290295227928e-01
	8.974361525112956e-01
	3.798883985448665e-02
	3.798883985448665e-02
35	8.754377188594297e-06
	9.342639517888789e-01
	8.218689903765214e-01
	1.207480139353394e+00
	3.746498713745247e-02
	3.746498713745247e-02
36	9.004502251125564e-06
	8.729084465021527e-01
	7.647458591262747e-01
	1.508218450290543e+00
	3.605419579195935e-02
	3.605419579195935e-02
37	9.254627313656829e-06
	7.932177854979373e-01
	6.919734778812080e-01
	1.792277634504415e+00
	3.374810253890976e-02
	3.374810253890976e-02
38	9.504752376188094e-06
	6.968658449823761e-01
	6.051845165295625e-01
	2.052336727095525e+00
	3.056044281760454e-02
	3.056044281760454e-02
39	9.754877438719361e-06
	5.858764658749995e-01
	5.062941418849274e-01
	2.281312494691360e+00
	2.652744133002403e-02
	2.652744133002403e-02
40	1.000500250125063e-05
	4.625809436937701e-01
	3.974580230458344e-01
	2.472544809586517e+00
	2.170764021597855e-02
	2.170764021597855e-02
41	1.025512756378189e-05
	3.295690604570888e-01
	2.810255871569687e-01
	2.619977449623415e+00
	1.618115776670668e-02
	1.618115776670668e-02
42	1.050525262631316e-05
	1.896346871616138e-01
	1.594895367877649e-01
	2.718329663161426e+00
	1.004838345794964e-02
	1.004838345794964e-02
43	1.075537768884442e-05
	4.571709943800775e-02
	3.543270696530063e-02
	2.763253909639866e+00
	3.428130824235709e-03
	3.428130824235709e-03
44	1.100550275137569e-05
	-9.916076096998570e-02
	-8.852660880471670e-02
	2.751475477396844e+00
	-3.544717388423001e-03
	-3.544717388423001e-03
45	1.125562781390695e-05
	-2.419557821057355e-01
	-2.097897111456304e-01
	2.680910027682109e+00
	-1.072202365336837e-02
	-1.072202365336837e-02
46	1.150575287643822e-05
	-3.796686013686162e-01
	-3.258317723157563e-01
	2.550755584235578e+00
	-1.794560968428664e-02
	-1.794560968428664e-02
47	1.175587793896949e-05
	-5.094066061420405e-01
	-4.342542092969324e-01
	2.361556044712363e+00
	-2.505079894836938e-02
	-2.505079894836938e-02
48	1.200600300150075e-05
	-6.284446921730586e-01
	-5.328340701592269e-01
	2.115233934002650e+00
	-3.187020733794391e-02
	-3.187020733794391e-02
49	1.225612806403202e-05
	-7.342825034937160e-01
	-6.195694208066759e-01
	1.815090828556162e+00
	-3.823769422901340e-02
	-3.823769422901340e-02
50	1.250625312656328e-05
	-8.246969515783622e-01
	-6.927198088399156e-01
	1.465774627044361e+00
	-4.399238091281557e-02
	-4.399238091281557e-02
51	1.275637818909455e-05
	-8.977889105892457e-01
	-7.508409921825069e-01
	1.073213677576078e+00
	-4.898263946891293e-02
	-4.898263946891293e-02
52	1.300650325162581e-05
	-9.520231078920711e-01
	-7.928132412394903e-01
	6.445184972518451e-01
	-5.306995555086030e-02
	-5.306995555086030e-02
53	1.325662831415708e-05
	-9.862603719543074e-01
	-8.178626667230763e-01
	1.878527103645974e-01
	-5.613256841041038e-02
	-5.613256841041038e-02
54	1.350675337668834e-05
	-9.997815602697309e-01
	-8.255751712178677e-01
	-2.877244429155437e-01
	-5.806879635062104e-02
	-5.806879635062104e-02
55	1.375687843921961e-05
	-9.923026647109803e-01
	-8.159027804175297e-01
	-7.724409643276786e-01
	-5.879996143115022e-02
	-5.879996143115022e-02
56	1.400700350175088e-05
	-9.639807770271547e-01
	-7.891622709429421e-01
	-1.256016498654394e+00
	-5.827283536140418e-02
	-5.827283536140418e-02
57	1.425712856428214e-05
	-9.154107891831301e-01
	-7.460261729884512e-01
	-1.727884010869204e+00
	-5.646153873155962e-02
	-5.646153873155962e-02
58	1.450725362681341e-05
	-8.476128978488839e-01
	-6.875063840298598e-01
	-2.177423782403965e+00
	-5.336883793967471e-02
	-5.336883793967471e-02
59	1.475737868934467e-05
	-7.620111755029355e-01
	-6.149307852820327e-01
	-2.594204611262652e+00
	-4.902679674030092e-02
	-4.902679674030092e-02
60	1.500750375187594e-05
	-6.604036582568468e-01
	-5.299133916140470e-01
	-2.968226572067316e+00
	-4.349675554759988e-02
	-4.349675554759988e-02
61	1.525762881440720e-05
	-5.449245786962225e-01
	-4.343187047591546e-01
	-3.290159821607896e+00
	-3.686862464568927e-02
	-3.686862464568927e-02
62	1.550775387693847e-05
	-4.179995370250008e-01
	-3.302210466403044e-01
	-3.551573644120579e+00
	-2.925949679489882e-02
	-2.925949679489882e-02
63	1.575787893946973e-05
	-2.822945521284616e-01
	-2.198597607655322e-01
	-3.745150307894644e+00
	-2.081159712097646e-02
	-2.081159712097646e-02
64	1.600800400200100e-05
	-1.406600627206328e-01
	-1.055912410668293e-01
	-3.864878363001633e+00
	-1.168960721793451e-02
	-1.168960721793451e-02
65	1.625812906453227e-05
	3.928945186298199e-03
	1.016118662254507e-02
	-3.906220500718983e+00
	-2.077413812082291e-03
	-2.077413812082291e-03
66	1.650825412706353e-05
	1.484354268877778e-01
	1.249584688832105e-01
	-3.866251558580044e+00
	7.825652668189119e-03
	7.825652668189119e-03
67	1.675837918959480e-05
	2.898240711151384e-01
	2.363970366323430e-01
	-3.743762877553912e+00
	1.780901149426511e-02
	1.780901149426511e-02
68	1.700850425212606e-05
	4.251250557536095e-01
	3.421589531557732e-01
	-3.539329929548535e+00
	2.765536753261211e-02
	2.765536753261211e-02
69	1.725862931465733e-05
	5.514964279821125e-01
	4.400599555407615e-01
	-3.255340929083885e+00
	3.714549081378365e-02
	3.714549081378365e-02
70	1.750875437718859e-05
	6.662837985604895e-01
	5.280943974540232e-01
	-2.895985005684538e+00
	4.606313370215544e-02
	4.606313370215544e-02
71	1.775887943971986e-05
	7.670760964051810e-01
	6.044761717880126e-01
	-2.467199418091446e+00
	5.419997487238946e-02
	5.419997487238946e-02
72	1.800900450225113e-05
	8.517562123468195e-01
	6.676747820504513e-01
	-1.976576234946351e+00
	6.136047676545613e-02
	6.136047676545613e-02
73	1.825912956478239e-05
	9.185454683141990e-01
	7.164458365726466e-01
	-1.433229816056910e+00
	6.736654391385082e-02
	6.736654391385082e-02
74	1.850925462731366e-05
	9.660409778839788e-01
	7.498553632313494e-01
	-8.476274168145290e-01
	7.206187155087650e-02
	7.206187155087650e-02
75	1.875937968984492e-05
	9.932451134500421e-01
	7.672974714900497e-01
	-2.313860062589260e-01
	7.531588065333079e-02
	7.531588065333079e-02
76	1.900950475237619e-05
	9.995864610642676e-01
	7.685050348218592e-01
	4.029606376108772e-01
	7.702714208080283e-02
	7.702714208080283e-02
77	1.925962981490745e-05
	9.849318227991626e-01
	7.535532108767345e-01
	1.042219890401405e+00
	7.712620397414267e-02
	7.712620397414267e-02
78	1.950975487743872e-05
	9.495890145266558e-01
	7.228557700484719e-01
	1.672817900103122e+00
	7.557774815939459e-02
	7.557774815939459e-02
79	1.975987993996998e-05
	8.943004003466334e-01
	6.771543525482762e-01
	2.281090946574477e+00
	7.238201593278573e-02
	7.238201593278573e-02
80	2.001000500250125e-05
	8.202272994724159e-01
	6.175009215094029e-01
	2.853584237853002e+00
	6.757545932100428e-02
	6.757545932100428e-02
81	2.026013006503252e-05
	7.289255931014537e-01
	5.452338209390546e-01
	3.377351566544974e+00
	6.123059072079971e-02
	6.123059072079971e-02
82	2.051025512756378e-05
	6.223130436408942e-01
	4.619479768225025e-01
	3.840249083226469e+00
	5.345502227279721e-02
	5.345502227279721e-02
83	2.076038019009505e-05
	5.026290127370028e-01
	3.694599027779995e-01
	4.231216569456175e+00
	4.438970331966775e-02
	4.438970331966775e-02
84	2.101050525262631e-05
	3.723874242180015e-01
	2.697682708020906e-01
	4.540539640896801e+00
	3.420638447197028e-02
	3.420638447197028e-02
85	2.126063031515758e-05
	2.343239599483087e-01
	1.650109017663467e-01
	4.760086767992763e+00
	2.310435272732067e-02
	2.310435272732067e-02
86	2.151075537768884e-05
	9.133859772790867e-02
	5.741909602528922e-02
	4.883515389470150e+00
	1.130650056753981e-02
	1.130650056753981e-02
87	2.176088044022011e-05
	-5.356530179049506e-02
	-5.072972334742760e-02
	4.906442040878416e+00
	-9.451928143558212e-04
	-9.451928143558212e-04
88	2.201100550275137e-05
	-1.973440797072920e-01
	-1.571600532203791e-01
	4.826572141935214e+00
	-1.339467549563765e-02
	-1.339467549563765e-02
89	2.226113056528264e-05
	-3.369777099332241e-01
	-2.596460287567562e-01
	4.643785927962258e+00
	-2.577722705882262e-02
	-2.577722705882262e-02
90	2.251125562781391e-05
	-4.695332338471960e-01
	-3.560578201171898e-01
	4.360177939879454e+00
	-3.782513791000206e-02
	-3.782513791000206e-02
91	2.276138069034517e-05
	-5.922263661304985e-01
	-4.444057435527448e-01
	3.980048487852549e+00
	-4.927354085925125e-02
	-4.927354085925125e-02
92	2.301150575287644e-05
	-7.024799777670256e-01
	-5.228811764227785e-01
	3.509846553003878e+00
	-5.986626711474904e-02
	-5.986626711474904e-02
93	2.326163081540770e-05
	-7.979782277933096e-01
	-5.898934376214334e-01
	2.958064662514371e+00
	-6.936159672395874e-02
	-6.936159672395874e-02
94	2.351175587793897e-05
	-8.767152067786430e-01
	-6.441018848162470e-01
	2.335087360245224e+00
	-7.753777398746532e-02
	-7.753777398746532e-02
95	2.376188094047023e-05
	-9.370370702950052e-01
	-6.844425832272850e-01
	1.652995931606737e+00
	-8.419816235590674e-02
	-8.419816235590674e-02
96	2.401200600300150e-05
	-9.776767773770193e-01
	-7.101490190915631e-01
	9.253330628321211e-01
	-8.917591942848535e-02
	-8.917591942848535e-02
97	2.426213106553277e-05
	-9.977807043020056e-01
	-7.207664580920009e-01
	1.668320498444868e-01
	-9.233808207000155e-02
	-9.233808207000155e-02
98	2.451225612806403e-05
	-9.969265746763972e-01
	-7.161596843495437e-01
	-6.068839842383570e-01
	-9.358896344228448e-02
	-9.358896344228448e-02
99	2.476238119059530e-05
	-9.751323292129362e-01
	-6.965139957169716e-01
	-1.379626667523037e+00
	-9.287277783198827e-02
	-9.287277783198827e-02
100	2.501250625312656e-05
	-9.328557488918827e-01
	-6.623294729966762e-01
	-2.134983950414699e+00
	-9.017542529840217e-02
	-9.017542529840217e-02
101	2.526263131565783e-05
	-8.709848394216213e-01
	-6.144086813924240e-01
	-2.856671403581438e+00
	-8.552538600973245e-02
	-8.552538600973245e-02
102	2.551275637818909e-05
	-7.908191789699004e-01
	-5.538380991396845e-01
	-3.528885670676735e+00
	-7.899369327673861e-02
	-7.899369327673861e-02
103	2.576288144072036e-05
	-6.940426209505228e-01
	-4.819636977077785e-01
	-4.136652355035387e+00
	-7.069297441424810e-02
	-7.069297441424810e-02
104	2.601300650325163e-05
	-5.826879252344650e-01
	-4.003612187837794e-01
	-4.666160664713026e+00
	-6.077556881689519e-02
	-6.077556881689519e-02
105	2.626313156578289e-05
	-4.590940606952813e-01
	-3.108017995625541e-01
	-5.105077297546921e+00
	-4.943075371090908e-02
	-4.943075371090908e-02
106	2.651325662831416e-05
	-3.258570759347784e-01
	-2.152136940311732e-01
	-5.442832468022824e+00
	-3.688112730120176e-02
	-3.688112730120176e-02
107	2.676338169084542e-05
	-1.857755701333237e-01
	-1.156409132737252e-01
	-5.670871452333356e+00
	-2.337821895319949e-02
	-2.337821895319949e-02
108	2.701350675337669e-05
	-4.179190939162574e-02
	-1.419966917062394e-02
	-5.782865737175722e+00
	-9.197413407000603e-03
	-9.197413407000603e-03
109	2.726363181590795e-05
	1.030695767044953e-01
	8.696645370390227e-02
	-5.774878661883745e+00
	5.367707666864354e-03
	5.367707666864354e-03
110	2.751375687843922e-05
	2.457661201354528e-01
	1.857316512245018e-01
	-5.645481385148292e+00
	2.001148963698367e-02
	2.001148963698367e-02
111	2.776388194097049e-05
	3.833004267925253e-01
	2.800324298324740e-01
	-5.395816045095266e+00
	3.442266565335044e-02
	3.442266565335044e-02
112	2.801400700350175e-05
	5.127836336578859e-01
	3.679105836218273e-01
	-5.029604102040278e+00
	4.829101667868623e-02
	4.829101667868623e-02
113	2.826413206603302e-05
	6.314959884250969e-01
	4.475537262635365e-01
	-4.553099031299123e+00
	6.131408738718684e-02
	6.131408738718684e-02
114	2.851425712856428e-05
	7.369439770046042e-01
	5.173325412009583e-01
	-3.974983736637780e+00
	7.320381193454868e-02
	7.320381193454868e-02
115	2.876438219109555e-05
	8.269126989696234e-01
	5.758339874836523e-01
	-3.306214272221857e+00
	8.369290382865702e-02
	8.369290382865702e-02
116	2.901450725362682e-05
	8.995123908134062e-01
	6.218897867109298e-01
	-2.559812641256968e+00
	9.254086803415881e-02
	9.254086803415881e-02
117	2.926463231615808e-05
	9.532181198121011e-01
	6.545996198701323e-01
	-1.750612593804431e+00
	9.953949998065632e-02
	9.953949998065632e-02
118	2.951475737868935e-05
	9.869018147366367e-01
	6.733485759328611e-01
	-8.949633978988600e-01
	1.045177462679252e-01
	1.045177462679252e-01
119	2.976488244122061e-05
	9.998559606190272e-01
	6.778185175829508e-01
	-1.039754183029111e-02
	1.073458143453588e-01
	1.073458143453588e-01
120	3.001500750375188e-05
	9.918084598723003e-01
	6.679931582537381e-01
	8.847308383365727e-01
	1.079384338728541e-01
	1.079384338728541e-01
121	3.026513256628314e-05
	9.629283476110997e-01
	6.441567777302131e-01
	1.771629295712269e+00
	1.062571899602956e-01
	1.062571899602956e-01
122	3.051525762881441e-05
	9.138222411245233e-01
	6.068866371399266e-01
	2.631464115897919e+00
	1.023118679948655e-01
	1.023118679948655e-01
123	3.076538269134568e-05
	8.455215980788556e-01
	5.570392858690875e-01
	3.445762626793059e+00
	9.616077073658932e-02
	9.616077073658932e-02
124	3.101550775387694e-05
	7.594610510874803e-01
	4.957310798982235e-01
	4.196812134639383e+00
	8.790999039641896e-02
	8.790999039641896e-02
125	3.126563281640820e-05
	6.574482737232024e-01
	4.243133506718426e-01
	4.868046832440327e+00
	7.771164101711991e-02
	7.771164101711991e-02
126	3.151575787893947e-05
	5.416260109275312e-01
	3.443427734432533e-01
	5.444414201465213e+00
	6.576107916142594e-02
	6.576107916142594e-02
127	3.176588294147074e-05
	4.144270713557379e-01
	2.575475815433779e-01
	5.912712784006836e+00
	5.229316327078668e-02
	5.229316327078668e-02
128	3.201600800400200e-05
	2.785232270287021e-01
	1.657903570562768e-01
	6.261893754278634e+00
	3.757762332414177e-02
	3.757762332414177e-02
129	3.226613306653327e-05
	1.367690936375929e-01
	7.102819639461992e-02
	6.483319418745730e+00
	2.191363241432432e-02
	2.191363241432432e-02
130	3.251625812906454e-05
	-7.857829722766637e-03
	-2.472890081015802e-02
	6.570972639827299e+00
	5.623690362463793e-03
	5.623690362463793e-03
131	3.276638319159580e-05
	-1.523197019461532e-01
	-1.194605368517270e-01
	6.521612194630675e+00
	-1.095305503147540e-02
	-1.095305503147540e-02
132	3.301650825412706e-05
	-2.935821487713604e-01
	-2.111784191241237e-01
	6.334870192208061e+00
	-2.746790988241225e-02
	-2.746790988241225e-02
133	3.326663331665833e-05
	-4.286779988186720e-01
	-2.979679695478440e-01
	6.013288890405192e+00
	-4.357000975694263e-02
	-4.357000975694263e-02
134	3.351675837918960e-05
	-5.547696080518436e-01
	-3.780281726992564e-01
	5.562295543962028e+00
	-5.891381178419577e-02
	-5.891381178419577e-02
135	3.376688344172086e-05
	-6.692084635607034e-01
	-4.497088349141560e-01
	4.990115237062273e+00
	-7.316654288218249e-02
	-7.316654288218249e-02
136	3.401700850425213e-05
	-7.695908147064621e-01
	-5.115444860451563e-01
	4.307622989358344e+00
	-8.601544288710193e-02
	-8.601544288710193e-02
137	3.426713356678340e-05
	-8.538081631157508e-01
	-5.622842302243597e-01
	3.528137758142955e+00
	-9.717464429713041e-02
	-9.717464429713041e-02
138	3.451725862931466e-05
	-9.200915509976528e-01
	-6.009169391410585e-01
	2.667162219654110e+00
	-1.063915372855315e-01
	-1.063915372855315e-01
139	3.476738369184592e-05
	-9.670487175221065e-01
	-6.266912832729862e-01
	1.742073432195844e+00
	-1.134524780830402e-01
	-1.134524780830402e-01
140	3.501750875437719e-05
	-9.936933428021532e-01
	-6.391302064328367e-01
	7.717705735783124e-01
	-1.181877121231055e-01
	-1.181877121231055e-01
141	3.526763381690846e-05
	-9.994657652197827e-01
	-6.380395679451332e-01
	-2.237130652792973e-01
	-1.204753990915498e-01
	-1.204753990915498e-01
142	3.551775887943972e-05
	-9.842447369347220e-01
	-6.235108001443310e-01
	-1.223625825804769e+00
	-1.202446455967970e-01
	-1.202446455967970e-01
143	3.576788394197099e-05
	-9.483499706555667e-01
	-5.959175552722600e-01
	-2.206932490195432e+00
	-1.174774717944356e-01
	-1.174774717944356e-01
144	3.601800900450226e-05
	-8.925354241791608e-01
	-5.559064419448073e-01
	-3.152758997445176e+00
	-1.122096607447845e-01
	-1.122096607447845e-01
145	3.626813406703352e-05
	-8.179734637542747e-01
	-5.043820748121414e-01
	-4.040837619380726e+00
	-1.045304629807111e-01
	-1.045304629807111e-01
146	3.651825912956478e-05
	-7.262302389129356e-01
	-4.424867791824075e-01
	-4.851943063111542e+00
	-9.458115324350934e-02
	-9.458115324350934e-02
147	3.676838419209605e-05
	-6.192327860130007e-01
	-3.715754027021040e-01
	-5.568310080861311e+00
	-8.255246110363219e-02
	-8.255246110363219e-02
148	3.701850925462732e-05
	-4.992285514712808e-01
	-2.931857874953345e-01
	-6.174023504352631e+00
	-6.868092132531539e-02
	-6.868092132531539e-02
149	3.726863431715858e-05
	-3.687381848884270e-01
	-2.090055414374390e-01
	-6.655372086566990e+00
	-5.324421448366267e-02
	-5.324421448366267e-02
150	3.751875937968985e-05
	-2.305025936305132e-01
	-1.208358272749013e-01
	-7.001158344163920e+00
	-3.655558878520396e-02
	-3.655558878520396e-02
151	3.776888444222111e-05
	-8.742537096849286e-02
	-3.055294123350344e-02
	-7.202957360772930e+00
	-1.895747657832981e-02
	-1.895747657832981e-02
152	3.801900950475238e-05
	5.748819294648805e-02
	5.993150031356797e-02
	-7.255318634830818e+00
	-8.144357890266385e-04
	-8.144357890266385e-04
153	3.826913456728364e-05
	2.011942362173342e-01
	1.487109236310928e-01
	-7.155906194895302e+00
	1.749443752874715e-02
	1.749443752874715e-02
154	3.851925962981491e-05
	3.406742605221763e-01
	2.339238609010192e-01
	-6.905573500123025e+00
	3.558346654038569e-02
	3.558346654038569e-02
155	3.876938469234618e-05
	4.729985336819269e-01
	3.137928735003636e-01
	-6.508371020060462e+00
	5.306855339385443e-02
	5.306855339385443e-02
156	3.901950975487744e-05
	5.953876277241491e-01
	3.866615237574050e-01
	-5.971485807674524e+00
	6.957536798891471e-02
	6.957536798891471e-02
157	3.926963481740870e-05
	7.052707998563075e-01
	4.510286286408440e-01
	-5.305113838816274e+00
	8.474739040515451e-02
	8.474739040515451e-02
158	3.951975987993997e-05
	8.003399900752670e-01
	5.055790883003912e-01
	-4.522267323530597e+00
	9.825363392495863e-02
	9.825363392495863e-02
159	3.976988494247124e-05
	8.785983012108995e-01
	5.492106596465827e-01
	-3.638520631690382e+00
	1.097958805214390e-01
	1.097958805214390e-01
160	4.002001000500250e-05
	9.384019430964210e-01
	5.810561306390214e-01
	-2.671699785259771e+00
	1.191152708191332e-01
	1.191152708191332e-01
161	4.027013506753377e-05
	9.784947598419028e-01
	6.005004514399751e-01
	-1.641521715610600e+00
	1.259981028006426e-01
	1.259981028006426e-01
162	4.052026013006504e-05
	9.980346149768745e-01
	6.071924871229754e-01
	-5.691906494937716e-01
	1.302807092846331e-01
	1.302807092846331e-01
163	4.077038519259630e-05
	9.966110802507757e-01
	6.010511689245921e-01
	5.230401253838044e-01
	1.318533037753946e-01
	1.318533037753946e-01
164	4.102051025512756e-05
	9.742540565437936e-01
	5.822659417009943e-01
	1.612331975644195e+00
	1.306627049475997e-01
	1.306627049475997e-01
165	4.127063531765883e-05
	9.314331458086744e-01
	5.512915240448641e-01
	2.675740453177521e+00
	1.267138739212701e-01
	1.267138739212701e-01
166	4.152076038019010e-05
	8.690477872356789e-01
	5.088371174365266e-01
	3.690700500129307e+00
	1.200702232663841e-01
	1.200702232663841e-01
167	4.177088544272136e-05
	7.884083648272859e-01
	4.558503163794941e-01
	4.635507049996190e+00
	1.108526828159306e-01
	1.108526828159306e-01
168	4.202101050525263e-05
	6.912086832118670e-01
	3.934960815465864e-01
	5.489780743252479e+00
	9.923753388842685e-02
	9.923753388842685e-02
169	4.227113556778390e-05
	5.794903898328040e-01
	3.231312407684732e-01
	6.234908753947884e+00
	8.545304968811022e-02
	8.545304968811022e-02
170	4.252126063031516e-05
	4.556000908133485e-01
	2.462750715870198e-01
	6.854451122305314e+00
	6.977500640877624e-02
	6.977500640877624e-02
171	4.277138569284642e-05
	3.221400612643728e-01
	1.645766038766053e-01
	7.334503780216271e+00
	5.252115246258916e-02
	5.252115246258916e-02
172	4.302151075537769e-05
	1.819135853488912e-01
	7.977934135876068e-02
	7.664010190501112e+00
	3.404474799671017e-02
	3.404474799671017e-02
173	4.327163581790896e-05
	3.786607421733251e-02
	-6.315842962910192e-03
	7.835014664202014e+00
	1.472730572674757e-02
	1.472730572674757e-02
174	4.352176088044022e-05
	-1.069768013879770e-01
	-9.188885292068821e-02
	7.842851556358672e+00
	-5.029316155762914e-03
	-5.029316155762914e-03
175	4.377188594297149e-05
	-2.495726643547134e-01
	-1.751387480251335e-01
	7.686265922299707e+00
	-2.481130544319327e-02
	-2.481130544319327e-02
176	4.402201100550275e-05
	-3.869263353342928e-01
	-2.543215485035714e-01
	7.367462606084895e+00
	-4.420159561024047e-02
	-4.420159561024047e-02
177	4.427213606803402e-05
	-5.161527455020721e-01
	-3.277866770935477e-01
	6.892082270008713e+00
	-6.278868946950815e-02
	-6.278868946950815e-02
178	4.452226113056528e-05
	-6.345375364820485e-01
	-3.940112750454554e-01
	6.269104409912162e+00
	-8.017542047886438e-02
	-8.017542047886438e-02
179	4.477238619309655e-05
	-7.395940745546200e-01
	-4.516316818434001e-01
	5.510678949286951e+00
	-9.598746423707331e-02
	-9.598746423707331e-02
180	4.502251125562782e-05
	-8.291156815825552e-01
	-4.994714302527947e-01
	4.631889552744635e+00
	-1.098814171099202e-01
	-1.098814171099202e-01
181	4.527263631815908e-05
	-9.012219855617648e-01
	-5.365651845980599e-01
	3.650453298329587e+00
	-1.215522669879017e-01
	-1.215522669879017e-01
182	4.552276138069035e-05
	-9.543984172187217e-01
	-5.621781329835909e-01
	2.586362627450805e+00
	-1.307400947450436e-01
	-1.307400947450436e-01
183	4.577288644322161e-05
	-9.875280230414779e-01
	-5.758204500545627e-01
	1.461476892054917e+00
	-1.372358576623051e-01
	-1.372358576623051e-01
184	4.602301150575288e-05
	-9.999149265219622e-01
	-5.772565456324305e-01
	2.990718546429650e-01
	-1.408861269631772e-01
	-1.408861269631772e-01
185	4.627313656828414e-05
	-9.912989448138708e-01
	-5.665089272996039e-01
	-8.766435444450081e-01
	-1.415966725047556e-01
	-1.415966725047556e-01
186	4.652326163081541e-05
	-9.618610537880529e-01
	-5.438566189003275e-01
	-2.041033100273304e+00
	-1.393348116292418e-01
	-1.393348116292418e-01
187	4.677338669334668e-05
	-9.122195866936775e-01
	-5.098281915641071e-01
	-3.169551298465071e+00
	-1.341304650431902e-01
	-1.341304650431902e-01
188	4.702351175587794e-05
	-8.434172462710691e-01
	-4.651895763050652e-01
	-4.238262410055093e+00
	-1.260758899886679e-01
	-1.260758899886679e-01
189	4.727363681840920e-05
	-7.568992031225206e-01
	-4.109269365192775e-01
	-5.224349708579159e+00
	-1.153240888677477e-01
	-1.153240888677477e-01
190	4.752376188094047e-05
	-6.544827403776108e-01
	-3.482249809465048e-01
	-6.106603940260999e+00
	-1.020859198103687e-01
	-1.020859198103687e-01
191	4.777388694347174e-05
	-5.383190822569243e-01
	-2.784411920736770e-01
	-6.865880571953147e+00
	-8.662596339441575e-02
	-8.662596339441575e-02
192	4.802401200600300e-05
	-4.108482083125994e-01
	-2.030765284824700e-01
	-7.485515934982027e+00
	-6.925722661004316e-02
	-6.925722661004316e-02
193	4.827413706853427e-05
	-2.747476024578451e-01
	-1.237432317453600e-01
	-7.951693213359038e+00
	-5.033479023749503e-02
	-5.033479023749503e-02
194	4.852426213106554e-05
	-1.328760132952071e-01
	-4.213042684410498e-02
	-8.253750234251765e+00
	-3.024852881703404e-02
	-3.024852881703404e-02
195	4.877438719359680e-05
	1.178659296051369e-02
	4.003175315904598e-02
	-8.384422204756964e+00
	-9.415053399510763e-03
	-9.415053399510763e-03
196	4.902451225612806e-05
	1.562016256955763e-01
	1.210087563973718e-01
	-8.340013909160916e+00
	1.173095643273486e-02
	1.173095643273486e-02
197	4.927463731865933e-05
	2.973356944968764e-01
	1.990981445869072e-01
	-8.120497324903397e+00
	3.274584996998973e-02
	3.274584996998973e-02
198	4.952476238119060e-05
	4.322243245229948e-01
	2.726653003887259e-01
	-7.729532192693227e+00
	5.318634137808961e-02
	5.318634137808961e-02
199	4.977488744372186e-05
	5.580342243262940e-01
	3.401775626174320e-01
	-7.174408694536405e+00
	7.261888723628734e-02
	7.261888723628734e-02
200	5.002501250625313e-05
	6.721227982108060e-01
	4.002360779724279e-01
	-6.465913041444173e+00
	9.062890674612606e-02
	9.062890674612606e-02
201	5.027513756878440e-05
	7.720936530884148e-01
	4.516047099222957e-01
	-5.618118429660788e+00
	1.068296477220397e-01
	1.068296477220397e-01
202	5.052526263131566e-05
	8.558469339299495e-01
	4.932354069485207e-01
	-4.648105385684087e+00
	1.208705089938096e-01
	1.208705089938096e-01
203	5.077538769384692e-05
	9.216234305316038e-01
	5.242895129580696e-01
	-3.575617083490582e+00
	1.324446391911781e-01
	1.324446391911781e-01
204	5.102551275637819e-05
	9.680415291484543e-01
	5.441545873188820e-01
	-2.422656605232989e+00
	1.412956472765241e-01
	1.412956472765241e-01
205	5.127563781890946e-05
	9.941262328382003e-01
	5.524563978360068e-01
	-1.213034348875641e+00
	1.472232783340645e-01
	1.472232783340645e-01
206	5.152576288144072e-05
	9.993296409522542e-01
	5.490658553701394e-01
	2.812503083616456e-02
	1.500879285273716e-01
	1.500879285273716e-01
207	5.177588794397199e-05
	9.835424576092259e-01
	5.341007628061691e-01